# vtk DataFile Version 3.0
Droplet Combustion
ASCII
DATASET STRUCTURED_GRID
DIMENSIONS  84  51 1
POINTS   4284 float
       -6.0000       -4.2270        0.0000
       -6.0000       -4.0142        0.0000
       -6.0000       -3.8031        0.0000
       -6.0000       -3.5935        0.0000
       -6.0000       -3.3856        0.0000
       -6.0000       -3.1791        0.0000
       -6.0000       -2.9740        0.0000
       -6.0000       -2.7702        0.0000
       -6.0000       -2.5676        0.0000
       -6.0000       -2.3662        0.0000
       -6.0000       -2.1658        0.0000
       -6.0000       -1.9664        0.0000
       -6.0000       -1.7679        0.0000
       -6.0000       -1.5702        0.0000
       -6.0000       -1.3731        0.0000
       -6.0000       -1.1767        0.0000
       -6.0000       -0.9808        0.0000
       -6.0000       -0.7852        0.0000
       -6.0000       -0.5900        0.0000
       -6.0000       -0.3949        0.0000
       -6.0000       -0.2000        0.0000
       -6.0000       -0.0051        0.0000
       -6.0000        0.1900        0.0000
       -6.0000        0.3852        0.0000
       -6.0000        0.5807        0.0000
       -6.0000        0.7766        0.0000
       -6.0000        0.9730        0.0000
       -6.0000        1.1699        0.0000
       -6.0000        1.3675        0.0000
       -6.0000        1.5658        0.0000
       -6.0000        1.7650        0.0000
       -6.0000        1.9650        0.0000
       -6.0000        2.1661        0.0000
       -6.0000        2.3683        0.0000
       -6.0000        2.5717        0.0000
       -6.0000        2.7762        0.0000
       -6.0000        2.9822        0.0000
       -6.0000        3.1895        0.0000
       -6.0000        3.3983        0.0000
       -6.0000        3.6086        0.0000
       -6.0000        3.8206        0.0000
       -6.0000        4.0342        0.0000
       -6.0000        4.2495        0.0000
       -6.0000        4.4667        0.0000
       -6.0000        4.6856        0.0000
       -6.0000        4.9065        0.0000
       -6.0000        5.1293        0.0000
       -6.0000        5.3541        0.0000
       -6.0000        5.5809        0.0000
       -6.0000        5.8098        0.0000
       -6.0000        6.0408        0.0000
       -6.0000        6.2739        0.0000
       -6.0000        6.5093        0.0000
       -6.0000        6.7467        0.0000
       -6.0000        6.9865        0.0000
       -6.0000        7.2284        0.0000
       -6.0000        7.4726        0.0000
       -6.0000        7.7191        0.0000
       -6.0000        7.9679        0.0000
       -6.0000        8.2189        0.0000
       -6.0000        8.4723        0.0000
       -6.0000        8.7280        0.0000
       -6.0000        8.9860        0.0000
       -6.0000        9.2463        0.0000
       -6.0000        9.5089        0.0000
       -6.0000        9.7738        0.0000
       -6.0000       10.0410        0.0000
       -6.0000       10.3105        0.0000
       -6.0000       10.5822        0.0000
       -6.0000       10.8563        0.0000
       -6.0000       11.1325        0.0000
       -6.0000       11.4111        0.0000
       -6.0000       11.6918        0.0000
       -6.0000       11.9747        0.0000
       -6.0000       12.2598        0.0000
       -6.0000       12.5471        0.0000
       -6.0000       12.8365        0.0000
       -6.0000       13.1280        0.0000
       -6.0000       13.4216        0.0000
       -6.0000       13.7173        0.0000
       -6.0000       14.0150        0.0000
       -6.0000       14.3147        0.0000
       -6.0000       14.6164        0.0000
       -6.0000       14.9200        0.0000
       -5.7600       -4.2270        0.0000
       -5.7600       -4.0142        0.0000
       -5.7600       -3.8031        0.0000
       -5.7600       -3.5935        0.0000
       -5.7600       -3.3856        0.0000
       -5.7600       -3.1791        0.0000
       -5.7600       -2.9740        0.0000
       -5.7600       -2.7702        0.0000
       -5.7600       -2.5676        0.0000
       -5.7600       -2.3662        0.0000
       -5.7600       -2.1658        0.0000
       -5.7600       -1.9664        0.0000
       -5.7600       -1.7679        0.0000
       -5.7600       -1.5702        0.0000
       -5.7600       -1.3731        0.0000
       -5.7600       -1.1767        0.0000
       -5.7600       -0.9808        0.0000
       -5.7600       -0.7852        0.0000
       -5.7600       -0.5900        0.0000
       -5.7600       -0.3949        0.0000
       -5.7600       -0.2000        0.0000
       -5.7600       -0.0051        0.0000
       -5.7600        0.1900        0.0000
       -5.7600        0.3852        0.0000
       -5.7600        0.5807        0.0000
       -5.7600        0.7766        0.0000
       -5.7600        0.9730        0.0000
       -5.7600        1.1699        0.0000
       -5.7600        1.3675        0.0000
       -5.7600        1.5658        0.0000
       -5.7600        1.7650        0.0000
       -5.7600        1.9650        0.0000
       -5.7600        2.1661        0.0000
       -5.7600        2.3683        0.0000
       -5.7600        2.5717        0.0000
       -5.7600        2.7762        0.0000
       -5.7600        2.9822        0.0000
       -5.7600        3.1895        0.0000
       -5.7600        3.3983        0.0000
       -5.7600        3.6086        0.0000
       -5.7600        3.8206        0.0000
       -5.7600        4.0342        0.0000
       -5.7600        4.2495        0.0000
       -5.7600        4.4667        0.0000
       -5.7600        4.6856        0.0000
       -5.7600        4.9065        0.0000
       -5.7600        5.1293        0.0000
       -5.7600        5.3541        0.0000
       -5.7600        5.5809        0.0000
       -5.7600        5.8098        0.0000
       -5.7600        6.0408        0.0000
       -5.7600        6.2739        0.0000
       -5.7600        6.5093        0.0000
       -5.7600        6.7467        0.0000
       -5.7600        6.9865        0.0000
       -5.7600        7.2284        0.0000
       -5.7600        7.4726        0.0000
       -5.7600        7.7191        0.0000
       -5.7600        7.9679        0.0000
       -5.7600        8.2189        0.0000
       -5.7600        8.4723        0.0000
       -5.7600        8.7280        0.0000
       -5.7600        8.9860        0.0000
       -5.7600        9.2463        0.0000
       -5.7600        9.5089        0.0000
       -5.7600        9.7738        0.0000
       -5.7600       10.0410        0.0000
       -5.7600       10.3105        0.0000
       -5.7600       10.5822        0.0000
       -5.7600       10.8563        0.0000
       -5.7600       11.1325        0.0000
       -5.7600       11.4111        0.0000
       -5.7600       11.6918        0.0000
       -5.7600       11.9747        0.0000
       -5.7600       12.2598        0.0000
       -5.7600       12.5471        0.0000
       -5.7600       12.8365        0.0000
       -5.7600       13.1280        0.0000
       -5.7600       13.4216        0.0000
       -5.7600       13.7173        0.0000
       -5.7600       14.0150        0.0000
       -5.7600       14.3147        0.0000
       -5.7600       14.6164        0.0000
       -5.7600       14.9200        0.0000
       -5.5200       -4.2270        0.0000
       -5.5200       -4.0142        0.0000
       -5.5200       -3.8031        0.0000
       -5.5200       -3.5935        0.0000
       -5.5200       -3.3856        0.0000
       -5.5200       -3.1791        0.0000
       -5.5200       -2.9740        0.0000
       -5.5200       -2.7702        0.0000
       -5.5200       -2.5676        0.0000
       -5.5200       -2.3662        0.0000
       -5.5200       -2.1658        0.0000
       -5.5200       -1.9664        0.0000
       -5.5200       -1.7679        0.0000
       -5.5200       -1.5702        0.0000
       -5.5200       -1.3731        0.0000
       -5.5200       -1.1767        0.0000
       -5.5200       -0.9808        0.0000
       -5.5200       -0.7852        0.0000
       -5.5200       -0.5900        0.0000
       -5.5200       -0.3949        0.0000
       -5.5200       -0.2000        0.0000
       -5.5200       -0.0051        0.0000
       -5.5200        0.1900        0.0000
       -5.5200        0.3852        0.0000
       -5.5200        0.5807        0.0000
       -5.5200        0.7766        0.0000
       -5.5200        0.9730        0.0000
       -5.5200        1.1699        0.0000
       -5.5200        1.3675        0.0000
       -5.5200        1.5658        0.0000
       -5.5200        1.7650        0.0000
       -5.5200        1.9650        0.0000
       -5.5200        2.1661        0.0000
       -5.5200        2.3683        0.0000
       -5.5200        2.5717        0.0000
       -5.5200        2.7762        0.0000
       -5.5200        2.9822        0.0000
       -5.5200        3.1895        0.0000
       -5.5200        3.3983        0.0000
       -5.5200        3.6086        0.0000
       -5.5200        3.8206        0.0000
       -5.5200        4.0342        0.0000
       -5.5200        4.2495        0.0000
       -5.5200        4.4667        0.0000
       -5.5200        4.6856        0.0000
       -5.5200        4.9065        0.0000
       -5.5200        5.1293        0.0000
       -5.5200        5.3541        0.0000
       -5.5200        5.5809        0.0000
       -5.5200        5.8098        0.0000
       -5.5200        6.0408        0.0000
       -5.5200        6.2739        0.0000
       -5.5200        6.5093        0.0000
       -5.5200        6.7467        0.0000
       -5.5200        6.9865        0.0000
       -5.5200        7.2284        0.0000
       -5.5200        7.4726        0.0000
       -5.5200        7.7191        0.0000
       -5.5200        7.9679        0.0000
       -5.5200        8.2189        0.0000
       -5.5200        8.4723        0.0000
[...]
POINT_DATA   4284
SCALARS VEL_MAGNITUDE float
LOOKUP_TABLE default
        0.5000
        0.4978
        0.4915
        0.4818
        0.4693
        0.4543
        0.4372
        0.4183
        0.3978
        0.3757
        0.3519
        0.3265
        0.2993
        0.2704
        0.2398
        0.2078
        0.1747
        0.1414
        0.1089
        0.0786
        0.0520
        0.0309
        0.0166
        0.0103
        0.0089
        0.0081
        0.0075
        0.0067
        0.0060
        0.0053
        0.0047
        0.0041
        0.0036
        0.0032
        0.0028
        0.0024
        0.0021
        0.0019
        0.0017
        0.0015
        0.0014
        0.0012
        0.0011
        0.0010
        0.0010
        0.0009
        0.0009
        0.0008
        0.0008
        0.0007
        0.0007
        0.0007
        0.0007
        0.0007
        0.0007
        0.0007
        0.0006
        0.0006
        0.0006
        0.0006
        0.0006
        0.0006
        0.0006
        0.0006
        0.0006
        0.0006
        0.0006
        0.0006
        0.0006
        0.0006
        0.0006
        0.0006
        0.0006
        0.0006
        0.0006
        0.0006
        0.0006
        0.0006
        0.0006
        0.0006
        0.0006
        0.0006
        0.0006
        0.0006
        0.5000
        0.4978
        0.4916
        0.4819
        0.4693
        0.4544
        0.4373
        0.4185
        0.3980
        0.3759
        0.3522
        0.3269
        0.2998
        0.2710
        0.2406
        0.2087
        0.1759
        0.1429
        0.1106
        0.0805
        0.0541
        0.0328
        0.0178
        0.0104
        0.0089
        0.0081
        0.0075
        0.0068
        0.0060
        0.0054
        0.0047
        0.0041
        0.0036
        0.0032
        0.0028
        0.0024
        0.0021
        0.0019
        0.0017
        0.0015
        0.0014
        0.0012
        0.0011
        0.0010
        0.0010
        0.0009
        0.0009
        0.0008
        0.0008
        0.0007
        0.0007
        0.0007
        0.0007
        0.0007
        0.0007
        0.0007
        0.0006
        0.0006
        0.0006
        0.0006
        0.0006
        0.0006
        0.0006
        0.0006
        0.0006
        0.0006
        0.0006
        0.0006
        0.0006
        0.0006
        0.0006
        0.0006
        0.0006
        0.0006
        0.0006
        0.0006
        0.0006
        0.0006
        0.0006
        0.0006
        0.0006
        0.0006
        0.0006
        0.0006
        0.5000
        0.4979
        0.4919
        0.4826
        0.4705
        0.4560
        0.4394
        0.4212
        0.4013
        0.3799
        0.3571
        0.3327
        0.3067
        0.2792
        0.2501
        0.2199
        0.1888
        0.1574
        0.1266
        0.0973
        0.0704
        0.0465
        0.0261
        0.0115
        0.0093
        0.0084
        0.0077
        0.0069
        0.0061
        0.0054
        0.0047
        0.0041
        0.0036
        0.0032
        0.0028
        0.0024
        0.0021
        0.0019
        0.0017
        0.0015
        0.0014
        0.0012
        0.0011
        0.0010
        0.0010
        0.0009
        0.0009
        0.0008
        0.0008
        0.0007
        0.0007
        0.0007
        0.0007
        0.0007
        0.0007
        0.0006
        0.0006
        0.0006
        0.0006
        0.0006
        0.0006
        0.0006
        0.0006
        0.0006
        0.0006
        0.0006
        0.0006
        0.0006
        0.0006
        0.0006
        0.0006
        0.0006
        0.0006
        0.0006
        0.0006
        0.0006
        0.0006
        0.0006
        0.0006
        0.0006
        0.0006
        0.0006
        0.0006
        0.0006
        0.5000
        0.4981
        0.4926
        0.4839
        0.4726
        0.4590
        0.4435
        0.4263
        0.4077
        0.3877
        0.3665
        0.3439
        0.3200
        0.2948
        0.2685
        0.2411
        0.2129
        0.1841
        0.1550
        0.1258
        0.0965
        0.0673
        0.0385
        0.0136
        0.0101
        0.0090
        0.0081
        0.0072
        0.0063
        0.0055
        0.0048
        0.0042
        0.0036
        0.0031
        0.0027
        0.0024
        0.0021
        0.0019
        0.0016
        0.0015
        0.0013
        0.0012
        0.0011
        0.0010
        0.0009
        0.0009
        0.0008
        0.0008
        0.0008
        0.0007
        0.0007
        0.0007
        0.0007
        0.0007
        0.0007
        0.0006
        0.0006
        0.0006
        0.0006
        0.0006
        0.0006
        0.0006
        0.0006
        0.0006
        0.0006
        0.0006
        0.0006
        0.0006
        0.0006
        0.0006
        0.0006
        0.0006
        0.0006
        0.0006
        0.0006
        0.0006
        0.0006
        0.0006
        0.0006
        0.0006
        0.0006
        0.0006
        0.0006
        0.0006
        0.5000
        0.4983
        0.4934
        0.4857
        0.4755
        0.4633
        0.4492
        0.4337
        0.4169
        0.3989
        0.3799
        0.3598
        0.3389
        0.3170
        0.2942
        0.2706
        0.2459
        0.2200
        0.1924
        0.1625
        0.1295
        0.0931
        0.0541
        0.0169
        0.0116
        0.0099
        0.0087
        0.0076
        0.0066
        0.0057
        0.0049
        0.0042
        0.0036
        0.0031
        0.0027
        0.0023
        0.0021
        0.0018
        0.0016
        0.0014
        0.0013
        0.0012
        0.0011
        0.0010
        0.0009
        0.0009
        0.0008
        0.0008
        0.0007
        0.0007
        0.0007
        0.0007
        0.0007
        0.0007
        0.0006
        0.0006
        0.0006
        0.0006
        0.0006
        0.0006
        0.0006
        0.0006
        0.0006
        0.0006
        0.0006
        0.0006
        0.0006
        0.0006
        0.0006
        0.0006
        0.0006
        0.0006
        0.0006
        0.0006
        0.0006
        0.0006
        0.0006
        0.0006
        0.0006
        0.0006
        0.0006
        0.0006
        0.0006
        0.0006
        0.5000
        0.4986
        0.4946
        0.4880
        0.4793
        0.4687
        0.4565
        0.4429
        0.4283
        0.4128
        0.3965
        0.3796
        0.3622
        0.3442
        0.3257
        0.3063
        0.2858
        0.2632
        0.2372
        0.2065
        0.1694
        0.1250
        0.0740
        0.0223
        0.0140
        0.0114
        0.0096
        0.0082
        0.0069
        0.0058
        0.0049
        0.0042
        0.0036
        0.0031
        0.0026
        0.0023
        0.0020
        0.0017
        0.0015
        0.0014
        0.0012
        0.0011
        0.0010
        0.0010
        0.0009
        0.0008
        0.0008
        0.0008
        0.0007
        0.0007
        0.0007
        0.0007
        0.0007
        0.0007
        0.0006
        0.0006
        0.0006
        0.0006
        0.0006
        0.0006
        0.0006
        0.0006
        0.0006
        0.0006
        0.0006
        0.0006
        0.0006
        0.0006
        0.0006
        0.0006
        0.0006
        0.0006
        0.0006
        0.0006
        0.0006
        0.0006
        0.0006
        0.0006
        0.0006
        0.0006
        0.0006
        0.0006
        0.0006
        0.0006
        0.5000
        0.4990
        0.4958
        0.4907
        0.4836
        0.4749
        0.4648
        0.4535
        0.4414
        0.4287
        0.4156
        0.4022
        0.3887
        0.3750
        0.3612
        0.3468
        0.3309
        0.3123
        0.2890
        0.2586
        0.2184
        0.1662
        0.1016
        0.0313
        0.0180
        0.0136
        0.0109
        0.0089
        0.0073
        0.0060
        0.0050
        0.0042
        0.0035
        0.0030
        0.0026
        0.0022
        0.0019
        0.0017
        0.0015
        0.0013
        0.0012
        0.0011
        0.0010
        0.0009
        0.0009
        0.0008
        0.0008
        0.0008
        0.0008
        0.0007
        0.0007
        0.0007
        0.0007
        0.0007
        0.0007
        0.0007
        0.0007
        0.0007
        0.0007
        0.0007
        0.0007
        0.0007
        0.0007
        0.0007
        0.0007
        0.0007
        0.0007
        0.0007
        0.0007
        0.0007
        0.0007
        0.0007
        0.0007
        0.0007
        0.0007
        0.0007
        0.0007
        0.0007
        0.0007
        0.0007
        0.0007
        0.0007
        0.0007
        0.0007
        0.5000
        0.4994
        0.4972
        0.4935
        0.4883
        0.4816
        0.4738
        0.4650
        0.4556
        0.4458
        0.4360
        0.4263
        0.4169
        0.4079
        0.3991
        0.3900
        0.3796
        0.3662
        0.3474
        0.3198
        0.2795
        0.2221
        0.1442
        0.0490
        0.0250
        0.0170
        0.0127
        0.0098
        0.0077
        0.0062
        0.0051
        0.0042
        0.0036
        0.0031
        0.0027
        0.0023
        0.0021
        0.0018
        0.0017
        0.0015
        0.0014
        0.0013
        0.0013
        0.0012
        0.0012
        0.0011
        0.0011
        0.0011
        0.0011
        0.0010
        0.0010
        0.0010
        0.0010
        0.0010
        0.0010
        0.0010
        0.0010
        0.0010
        0.0010
        0.0010
        0.0010
        0.0010
        0.0010
        0.0010
        0.0010
        0.0010
        0.0010
        0.0010
        0.0010
        0.0010
        0.0010
        0.0010
        0.0010
        0.0010
        0.0010
        0.0010
        0.0010
        0.0010
        0.0010
        0.0010
        0.0010
        0.0010
        0.0010
        0.0010
        0.5000
        0.4997
        0.4987
        0.4965
        0.4931
        0.4886
        0.4831
        0.4768
        0.4701
        0.4634
        0.4569
        0.4509
        0.4456
        0.4412
        0.4375
        0.4340
        0.4298
        0.4229
        0.4109
        0.3899
        0.3551
        0.3000
        0.2157
        0.0916
        0.0387
        0.0237
        0.0161
        0.0116
        0.0089
        0.0073
        0.0062
        0.0055
        0.0050
        0.0047
        0.0044
        0.0042
        0.0041
        0.0040
        0.0039
        0.0038
        0.0038
        0.0037
        0.0037
        0.0036
        0.0036
        0.0036
        0.0036
        0.0036
        0.0036
        0.0035
        0.0035
        0.0035
        0.0035
        0.0035
        0.0035
        0.0035
        0.0035
        0.0035
        0.0035
        0.0035
        0.0035
        0.0035
        0.0035
        0.0035
        0.0035
        0.0035
        0.0035
        0.0035
        0.0035
        0.0035
        0.0035
        0.0035
        0.0035
        0.0035
        0.0035
        0.0035
        0.0035
        0.0035
        0.0035
        0.0035
        0.0035
        0.0035
        0.0035
        0.0035
        0.5000
        0.5001
        0.5001
        0.4995
        0.4980
        0.4955
        0.4923
        0.4885
        0.4845
        0.4806
        0.4772
        0.4747
        0.4733
        0.4733
        0.4744
        0.4765
        0.4785
        0.4790
        0.4756
        0.4650
        0.4428
        0.4031
        0.3355
        0.2154
        0.1050
        0.0560
        0.0371
        0.0300
        0.0273
        0.0260
        0.0253
        0.0249
        0.0245
        0.0243
        0.0241
        0.0239
        0.0237
        0.0236
        0.0234
        0.0233
        0.0232
        0.0231
        0.0230
        0.0229
        0.0229
        0.0228
        0.0227
        0.0227
        0.0226
        0.0226
        0.0225
        0.0225
        0.0224
        0.0224
        0.0224
        0.0223
        0.0223
        0.0223
        0.0223
        0.0222
        0.0222
        0.0222
        0.0222
        0.0222
        0.0222
        0.0222
        0.0221
        0.0221
        0.0221
        0.0221
        0.0221
        0.0221
        0.0221
        0.0221
        0.0221
        0.0221
        0.0221
        0.0221
        0.0221
        0.0221
        0.0221
        0.0221
        0.0221
        0.0221
        0.5000
        0.5005
        0.5015
        0.5023
        0.5026
        0.5021
        0.5011
        0.4996
        0.4980
        0.4968
        0.4962
        0.4968
        0.4989
        0.5026
        0.5081
        0.5150
        0.5227
        0.5301
        0.5351
        0.5353
        0.5276
        0.5082
        0.4730
        0.4177
        0.3425
        0.2839
        0.2450
        0.2208
        0.2059
        0.1964
        0.1902
        0.1859
        0.1827
        0.1802
        0.1782
        0.1765
        0.1751
        0.1738
        0.1727
        0.1717
        0.1708
        0.1700
        0.1693
        0.1686
        0.1680
        0.1674
        0.1669
        0.1664
        0.1660
        0.1656
        0.1652
        0.1649
        0.1646
        0.1643
        0.1641
        0.1638
        0.1636
        0.1634
        0.1632
        0.1631
        0.1629
        0.1628
        0.1627
        0.1625
        0.1624
        0.1623
        0.1623
        0.1622
        0.1621
        0.1621
        0.1620
        0.1620
        0.1619
        0.1619
        0.1619
        0.1618
        0.1618
        0.1618
        0.1618
        0.1618
        0.1618
        0.1618
        0.1618
        0.1618
        0.5000
        0.5008
        0.5027
        0.5049
        0.5068
        0.5082
        0.5091
        0.5097
        0.5103
        0.5114
        0.5133
        0.5165
        0.5213
        0.5281
        0.5369
        0.5476
        0.5598
        0.5724
        0.5841
        0.5927
        0.5958
        0.5906
        0.5740
        0.5436
        0.4996
        0.4553
        0.4182
        0.3897
        0.3688
        0.3537
        0.3427
        0.3345
        0.3282
        0.3233
        0.3193
        0.3160
        0.3132
        0.3107
        0.3086
        0.3066
        0.3049
        0.3034
        0.3020
        0.3007
        0.2996
        0.2985
        0.2975
        0.2967
        0.2959
        0.2951
        0.2945
        0.2939
        0.2933
        0.2928
        0.2923
        0.2919
        0.2915
        0.2911
        0.2908
        0.2905
        0.2902
        0.2900
        0.2897
        0.2895
        0.2893
        0.2892
        0.2890
        0.2889
        0.2888
        0.2886
        0.2885
        0.2885
        0.2884
        0.2883
        0.2883
        0.2882
        0.2882
        0.2882
        0.2881
        0.2881
        0.2881
        0.2881
        0.2881
        0.2881
        0.5000
        0.5011
        0.5038
        0.5072
        0.5105
        0.5136
        0.5162
        0.5186
        0.5211
        0.5241
        0.5280
        0.5332
        0.5402
        0.5491
        0.5602
        0.5734
        0.5884
        0.6044
        0.6202
        0.6342
        0.6442
        0.6480
        0.6432
        0.6282
        0.6036
        0.5747
        0.5463
        0.5212
        0.5004
        0.4838
        0.4706
        0.4601
        0.4517
        0.4449
        0.4393
        0.4345
        0.4304
        0.4269
        0.4238
        0.4211
        0.4186
        0.4164
        0.4144
        0.4127
        0.4110
        0.4096
        0.4082
        0.4070
        0.4059
        0.4048
        0.4039
        0.4030
        0.4023
        0.4015
        0.4009
        0.4003
        0.3997
        0.3992
        0.3988
        0.3983
        0.3979
        0.3976
        0.3973
        0.3970
        0.3967
        0.3965
        0.3963
        0.3961
        0.3959
        0.3957
        0.3956
        0.3955
        0.3953
        0.3953
        0.3952
        0.3951
        0.3951
        0.3950
        0.3950
        0.3950
        0.3950
        0.3950
        0.3950
        0.3950
        0.5000
        0.5014
        0.5047
        0.5091
        0.5137
        0.5181
        0.5223
        0.5262
        0.5302
        0.5348
        0.5402
        0.5468
        0.5552
        0.5655
        0.5779
        0.5924
        0.6087
        0.6262
        0.6440
        0.6607
        0.6746
        0.6838
        0.6866
        0.6818
        0.6697
        0.6527
        0.6335
        0.6144
        0.5969
        0.5816
        0.5684
        0.5574
        0.5481
        0.5403
        0.5336
        0.5279
        0.5230
        0.5187
        0.5149
        0.5115
        0.5085
        0.5058
        0.5034
        0.5012
        0.4992
        0.4974
        0.4957
        0.4942
        0.4929
        0.4916
        0.4905
        0.4894
        0.4884
        0.4876
        0.4868
        0.4860
        0.4853
        0.4847
        0.4841
        0.4836
        0.4831
        0.4827
        0.4823
        0.4820
        0.4816
        0.4813
        0.4811
        0.4808
        0.4806
        0.4804
        0.4802
        0.4801
        0.4799
        0.4798
        0.4797
        0.4796
        0.4796
        0.4795
        0.4795
        0.4795
        0.4795
        0.4794
        0.4794
        0.4794
        0.5000
        0.5016
        0.5055
        0.5107
        0.5163
        0.5219
        0.5272
        0.5324
        0.5376
        0.5433
        0.5498
        0.5574
        0.5666
        0.5776
        0.5904
        0.6052
        0.6216
        0.6393
        0.6575
        0.6749
        0.6904
        0.7024
        0.7097
        0.7113
        0.7073
        0.6987
        0.6871
        0.6740
        0.6608
        0.6481
        0.6365
        0.6262
        0.6171
        0.6091
        0.6022
        0.5961
        0.5907
        0.5860
        0.5818
        0.5781
        0.5747
        0.5717
        0.5690
        0.5665
        0.5643
        0.5623
        0.5604
        0.5587
        0.5572
        0.5558
        0.5545
        0.5533
        0.5522
        0.5512
        0.5503
        0.5495
        0.5487
        0.5480
        0.5473
        0.5468
        0.5462
        0.5457
        0.5453
        0.5449
        0.5445
        0.5442
        0.5439
        0.5436
        0.5433
        0.5431
        0.5429
        0.5427
        0.5426
        0.5424
        0.5423
        0.5422
        0.5422
        0.5421
        0.5421
        0.5420
        0.5420
        0.5420
        0.5420
        0.5420
        0.5000
        0.5017
        0.5060
        0.5119
        0.5183
        0.5248
        0.5311
        0.5372
        0.5433
        0.5498
        0.5570
        0.5653
        0.5748
        0.5858
        0.5985
        0.6129
        0.6287
        0.6456
        0.6629
        0.6799
        0.6955
        0.7085
        0.7180
        0.7233
        0.7243
        0.7213
        0.7153
        0.7072
        0.6979
        0.6884
        0.6790
        0.6701
        0.6620
        0.6545
        0.6479
        0.6419
        0.6365
        0.6317
        0.6274
        0.6236
        0.6201
        0.6170
        0.6141
        0.6115
        0.6092
        0.6070
        0.6051
        0.6033
        0.6016
        0.6001
        0.5988
        0.5975
        0.5963
        0.5953
        0.5943
        0.5934
        0.5926
        0.5918
        0.5911
        0.5905
        0.5899
        0.5894
        0.5889
        0.5885
        0.5881
        0.5877
        0.5874
        0.5871