# vtk DataFile Version 3.0
Droplet Combustion
ASCII
DATASET STRUCTURED_GRID
DIMENSIONS  16  10 1
POINTS    160 float
       -6.0000       -4.3318        0.0000
       -6.0000       -3.1909        0.0000
       -6.0000       -2.0861        0.0000
       -6.0000       -1.0000        0.0000
       -6.0000        0.0853        0.0000
       -6.0000        1.1850        0.0000
       -6.0000        2.3128        0.0000
       -6.0000        3.4806        0.0000
       -6.0000        4.6987        0.0000
       -6.0000        5.9749        0.0000
       -6.0000        7.3146        0.0000
       -6.0000        8.7206        0.0000
       -6.0000       10.1939        0.0000
       -6.0000       11.7333        0.0000
       -6.0000       13.3366        0.0000
       -6.0000       15.0000        0.0000
       -4.6667       -4.3318        0.0000
       -4.6667       -3.1909        0.0000
       -4.6667       -2.0861        0.0000
       -4.6667       -1.0000        0.0000
       -4.6667        0.0853        0.0000
       -4.6667        1.1850        0.0000
       -4.6667        2.3128        0.0000
       -4.6667        3.4806        0.0000
       -4.6667        4.6987        0.0000
       -4.6667        5.9749        0.0000
       -4.6667        7.3146        0.0000
       -4.6667        8.7206        0.0000
       -4.6667       10.1939        0.0000
       -4.6667       11.7333        0.0000
       -4.6667       13.3366        0.0000
       -4.6667       15.0000        0.0000
       -3.3333       -4.3318        0.0000
       -3.3333       -3.1909        0.0000
       -3.3333       -2.0861        0.0000
       -3.3333       -1.0000        0.0000
       -3.3333        0.0853        0.0000
       -3.3333        1.1850        0.0000
       -3.3333        2.3128        0.0000
       -3.3333        3.4806        0.0000
       -3.3333        4.6987        0.0000
       -3.3333        5.9749        0.0000
       -3.3333        7.3146        0.0000
       -3.3333        8.7206        0.0000
       -3.3333       10.1939        0.0000
       -3.3333       11.7333        0.0000
       -3.3333       13.3366        0.0000
       -3.3333       15.0000        0.0000
       -2.0000       -4.3318        0.0000
       -2.0000       -3.1909        0.0000
       -2.0000       -2.0861        0.0000
       -2.0000       -1.0000        0.0000
       -2.0000        0.0853        0.0000
       -2.0000        1.1850        0.0000
       -2.0000        2.3128        0.0000
       -2.0000        3.4806        0.0000
       -2.0000        4.6987        0.0000
       -2.0000        5.9749        0.0000
       -2.0000        7.3146        0.0000
       -2.0000        8.7206        0.0000
       -2.0000       10.1939        0.0000
       -2.0000       11.7333        0.0000
       -2.0000       13.3366        0.0000
       -2.0000       15.0000        0.0000
       -0.6667       -4.3318        0.0000
       -0.6667       -3.1909        0.0000
       -0.6667       -2.0861        0.0000
       -0.6667       -1.0000        0.0000
       -0.6667        0.0853        0.0000
       -0.6667        1.1850        0.0000
       -0.6667        2.3128        0.0000
       -0.6667        3.4806        0.0000
       -0.6667        4.6987        0.0000
       -0.6667        5.9749        0.0000
       -0.6667        7.3146        0.0000
       -0.6667        8.7206        0.0000
       -0.6667       10.1939        0.0000
       -0.6667       11.7333        0.0000
       -0.6667       13.3366        0.0000
       -0.6667       15.0000        0.0000
        0.6667       -4.3318        0.0000
        0.6667       -3.1909        0.0000
        0.6667       -2.0861        0.0000
        0.6667       -1.0000        0.0000
        0.6667        0.0853        0.0000
        0.6667        1.1850        0.0000
        0.6667        2.3128        0.0000
        0.6667        3.4806        0.0000
        0.6667        4.6987        0.0000
        0.6667        5.9749        0.0000
        0.6667        7.3146        0.0000
        0.6667        8.7206        0.0000
        0.6667       10.1939        0.0000
        0.6667       11.7333        0.0000
        0.6667       13.3366        0.0000
        0.6667       15.0000        0.0000
        2.0000       -4.3318        0.0000
        2.0000       -3.1909        0.0000
        2.0000       -2.0861        0.0000
        2.0000       -1.0000        0.0000
        2.0000        0.0853        0.0000
        2.0000        1.1850        0.0000
        2.0000        2.3128        0.0000
        2.0000        3.4806        0.0000
        2.0000        4.6987        0.0000
        2.0000        5.9749        0.0000
        2.0000        7.3146        0.0000
        2.0000        8.7206        0.0000
        2.0000       10.1939        0.0000
        2.0000       11.7333        0.0000
        2.0000       13.3366        0.0000
        2.0000       15.0000        0.0000
        3.3333       -4.3318        0.0000
        3.3333       -3.1909        0.0000
        3.3333       -2.0861        0.0000
        3.3333       -1.0000        0.0000
        3.3333        0.0853        0.0000
        3.3333        1.1850        0.0000
        3.3333        2.3128        0.0000
        3.3333        3.4806        0.0000
        3.3333        4.6987        0.0000
        3.3333        5.9749        0.0000
        3.3333        7.3146        0.0000
        3.3333        8.7206        0.0000
        3.3333       10.1939        0.0000
        3.3333       11.7333        0.0000
        3.3333       13.3366        0.0000
        3.3333       15.0000        0.0000
        4.6667       -4.3318        0.0000
        4.6667       -3.1909        0.0000
        4.6667       -2.0861        0.0000
        4.6667       -1.0000        0.0000
        4.6667        0.0853        0.0000
        4.6667        1.1850        0.0000
        4.6667        2.3128        0.0000
        4.6667        3.4806        0.0000
        4.6667        4.6987        0.0000
        4.6667        5.9749        0.0000
        4.6667        7.3146        0.0000
        4.6667        8.7206        0.0000
        4.6667       10.1939        0.0000
        4.6667       11.7333        0.0000
        4.6667       13.3366        0.0000
        4.6667       15.0000        0.0000
        6.0000       -4.3318        0.0000
        6.0000       -3.1909        0.0000
        6.0000       -2.0861        0.0000
        6.0000       -1.0000        0.0000
        6.0000        0.0853        0.0000
        6.0000        1.1850        0.0000
        6.0000        2.3128        0.0000
        6.0000        3.4806        0.0000
        6.0000        4.6987        0.0000
        6.0000        5.9749        0.0000
        6.0000        7.3146        0.0000
        6.0000        8.7206        0.0000
        6.0000       10.1939        0.0000
        6.0000       11.7333        0.0000
        6.0000       13.3366        0.0000
        6.0000       15.0000        0.0000
POINT_DATA    160
SCALARS VEL_MAGNITUDE float
LOOKUP_TABLE default
        0.5000
        0.4144
        0.2126
        0.0663
        0.2811
        0.3165
        0.3199
        0.3571
        0.3746
        0.4061
        0.4437
        0.4332
        0.3950
        0.3681
        0.3735
        0.3628
        0.5000
        0.4233
        0.2516
        0.2220
        0.2812
        0.3174
        0.3199
        0.3571
        0.3746
        0.4068
        0.4445
        0.4335
        0.3951
        0.3682
        0.3740
        0.3633
        0.5000
        0.5139
        0.4959
        0.5457
        0.3071
        0.3051
        0.3446
        0.3632
        0.3934
        0.4278
        0.4313
        0.3958
        0.3774
        0.3844
        0.3836
        0.3861
        0.5000
        0.5683
        0.5976
        0.6700
        0.8416
        0.7727
        0.6690
        0.5976
        0.5280
        0.4716
        0.4854
        0.5302
        0.5497
        0.5491
        0.5502
        0.5481
        0.5000
        0.5685
        0.5890
        0.6125
        0.7014
        0.7062
        0.6428
        0.5920
        0.5374
        0.4880
        0.5264
        0.5881
        0.5964
        0.5829
        0.5956
        0.5750
        0.5000
        0.5574
        0.5678
        0.5643
        0.6295
        0.6451
        0.5884
        0.5391
        0.4997
        0.4588
        0.5073
        0.6028
        0.6135
        0.5623
        0.5969
        0.5338
        0.5000
        0.5557
        0.5592
        0.5360
        0.5900
        0.6031
        0.5439
        0.4901
        0.4624
        0.4392
        0.4900
        0.6029
        0.6277
        0.5527
        0.6039
        0.5048
        0.5000
        0.5453
        0.5374
        0.5150
        0.5681
        0.5732
        0.5240
        0.4734
        0.4317
        0.4168
        0.4872
        0.6042
        0.6290
        0.5438
        0.6030
        0.4858
        0.5000
        0.5291
        0.5119
        0.5090
        0.5717
        0.5696
        0.5323
        0.4809
        0.4028
        0.3799
        0.4837
        0.6163
        0.6342
        0.5413
        0.6041
        0.4785
        0.5000
        0.5287
        0.5117
        0.5089
        0.5717
        0.5695
        0.5323
        0.4805
        0.4025
        0.3798
        0.4833
        0.6162
        0.6342
        0.5412
        0.6040
        0.4863
SCALARS T float
LOOKUP_TABLE default
        1.0000
        0.1356
        0.0540
        0.0501
        0.0500
        0.0500
        0.0500
        0.0500
        0.0500
        0.0500
        0.0500
        0.0500
        0.0500
        0.0500
        0.0500
        0.0500
        1.0000
        0.1356
        0.0540
        0.0501
        0.0500
        0.0500
        0.0500
        0.0500
        0.0500
        0.0500
        0.0500
        0.0500
        0.0500
        0.0500
        0.0500
        0.0500
        1.0000
        0.1357
        0.0542
        0.0501
        0.0500
        0.0500
        0.0500
        0.0500
        0.0500
        0.0500
        0.0500
        0.0500
        0.0500
        0.0500
        0.0500
        0.0500
        1.0000
        0.1359
        0.0543
        0.0501
        0.0500
        0.0500
        0.0500
        0.0500
        0.0500
        0.0500
        0.0500
        0.0500
        0.0500
        0.0500
        0.0500
        0.0500
        1.0000
        0.1359
        0.0544
        0.0501
        0.0500
        0.0500
        0.0500
        0.0500
        0.0500
        0.0500
        0.0500
        0.0500
        0.0500
        0.0500
        0.0500
        0.0500
        1.0000
        0.1360
        0.0544
        0.0501
        0.0500
        0.0500
        0.0500
        0.0500
        0.0500
        0.0500
        0.0500
        0.0500
        0.0500
        0.0500
        0.0500
        0.0500
        1.0000
        0.1360
        0.0544
        0.0501
        0.0500
        0.0500
        0.0500
        0.0500
        0.0500
        0.0500
        0.0500
        0.0500
        0.0500
        0.0500
        0.0500
        0.0500
        1.0000
        0.1360
        0.0544
        0.0501
        0.0500
        0.0500
        0.0500
        0.0500
        0.0500
        0.0500
        0.0500
        0.0500
        0.0500
        0.0500
        0.0500
        0.0500
        1.0000
        0.1360
        0.0544
        0.0501
        0.0500
        0.0500
        0.0500
        0.0500
        0.0500
        0.0500
        0.0500
        0.0500
        0.0500
        0.0500
        0.0500
        0.0500
        1.0000
        0.1360
        0.0544
        0.0501
        0.0500
        0.0500
        0.0500
        0.0500
        0.0500
        0.0500
        0.0500
        0.0500
        0.0500
        0.0500
        0.0500
        0.0500
SCALARS P float
LOOKUP_TABLE default
     -276.5173
     -276.5173
     -266.9143
     -258.6765
     -254.6283
     -197.2157
     -128.1360
      -97.0997
      -51.1979
      -27.1823
        9.2448
       77.7229
      100.8499
       81.8060
       35.5917
      -10.6227
     -276.5173
     -276.5173
     -266.9143
     -258.6765
     -254.6283
     -197.2157
     -128.1360
      -97.0997
      -51.1979
      -27.1823
        9.2448
       77.7229
      100.8499
       81.8060
       35.5917
      -10.6227
     -258.7782
     -258.7782
     -266.1726
     -260.6828
     -254.5219
     -227.6727
     -178.0603
     -103.9150
      -39.6296
      -20.6348
       28.2037
       57.6714
       40.6451
       47.0660
       58.1760
       69.2860
     -212.2926
     -212.2926
     -230.1008
     -232.8593
     -224.8983
     -202.9995
     -173.9751
     -124.1444
      -56.8483
      -17.1417
       -5.3382
       13.8583
       18.9148
       24.3143
       44.7672
       65.2201
     -193.8182
     -193.8182
     -206.5779
     -205.2247
     -204.1656
     -179.7633
     -159.3992
     -128.2433
      -56.1599
       -6.5677
      -36.8999
      -42.4561
      -28.4379
       -8.7224
       41.2167
       91.1559
     -182.6843
     -182.6843
     -184.2248
     -188.0939
     -211.7029
     -186.3456
     -150.7933
     -108.4633
      -33.7624
        5.1501
      -50.4265
      -73.0322
      -59.3242
      -31.5477
       33.7220
       98.9917
     -146.9225
     -146.9225
     -137.7745
     -154.9809
     -198.5076
     -176.8088
     -141.7234
      -88.9066
      -19.1349
      -14.8004
      -83.8630
      -98.8363
      -70.7548
      -43.7500
        6.8278
       57.4056
     -128.0338
     -128.0338
     -115.7381
     -138.9041
     -175.0954
     -148.6672
     -134.0408
      -79.8095
       -2.9887
      -24.3540
     -105.3535
     -118.9166
      -78.2807
      -55.3931
      -32.0704
       -8.7476
     -147.8331
     -147.8331
     -141.6643
     -166.2084
     -182.4378
     -137.2621
     -134.0653
      -85.4157
       -2.9306
      -29.7966
     -110.0056
     -126.2750
      -82.4218
      -64.5956
      -62.5857
      -60.5758
     -147.8331
     -147.8331
     -141.6643
     -166.2084
     -182.4378
     -137.2621
     -134.0653
      -85.4157
       -2.9306
      -29.7966
     -110.0056
     -126.2750
      -82.4218
      -64.5956
      -62.5857
      -60.5758


VECTORS Vectors float
        0.0000        0.5000        0.0000
        0.0000        0.4144        0.0000
        0.0000        0.2126        0.0000
        0.0000       -0.0663        0.0000
        0.0000       -0.2811        0.0000
        0.0000       -0.3165        0.0000
        0.0000       -0.3199        0.0000
        0.0000       -0.3571        0.0000
        0.0000       -0.3746        0.0000
        0.0000       -0.4061        0.0000
        0.0000       -0.4437        0.0000
        0.0000       -0.4332        0.0000
        0.0000       -0.3950        0.0000
        0.0000       -0.3681        0.0000
        0.0000       -0.3735        0.0000
        0.0000       -0.3628        0.0000
        0.0000        0.5000        0.0000
        0.0863        0.4144        0.0000
        0.1345        0.2126        0.0000
        0.2119       -0.0663        0.0000
        0.0067       -0.2811        0.0000
        0.0239       -0.3165        0.0000
        0.0063       -0.3199        0.0000
       -0.0017       -0.3571        0.0000
       -0.0039       -0.3746        0.0000
       -0.0244       -0.4061        0.0000
       -0.0271       -0.4437        0.0000
       -0.0138       -0.4332        0.0000
        0.0075       -0.3950        0.0000
       -0.0016       -0.3681        0.0000
       -0.0190       -0.3735        0.0000
       -0.0190       -0.3628        0.0000
        0.0000        0.5000        0.0000
        0.2187        0.4650        0.0000
        0.3087        0.3881        0.0000
        0.4414        0.3209        0.0000
        0.3063        0.0210        0.0000
        0.0780       -0.2950        0.0000
        0.0147       -0.3443        0.0000
       -0.0105       -0.3630        0.0000
       -0.0250       -0.3926        0.0000
       -0.0555       -0.4242        0.0000
       -0.0561       -0.4276        0.0000
       -0.0258       -0.3950        0.0000
       -0.0134       -0.3772        0.0000
       -0.0163       -0.3841        0.0000
       -0.0251       -0.3828        0.0000
       -0.0251       -0.3853        0.0000
        0.0000        0.5000        0.0000
        0.2653        0.5026        0.0000
        0.3331        0.4962        0.0000
        0.3943        0.5417        0.0000
        0.4614        0.7039        0.0000
        0.1392        0.7601        0.0000
        0.0507        0.6670        0.0000
        0.0042        0.5976        0.0000
       -0.0267        0.5273        0.0000
       -0.0505        0.4689        0.0000
       -0.0596        0.4818        0.0000
       -0.0321        0.5292        0.0000
       -0.0357        0.5486        0.0000
       -0.0285        0.5483        0.0000
       -0.0297        0.5494        0.0000
       -0.0297        0.5473        0.0000
        0.0000        0.5000        0.0000
        0.2273        0.5211        0.0000
        0.2722        0.5223        0.0000
        0.2769        0.5464        0.0000
        0.2614        0.6509        0.0000
        0.1597        0.6879        0.0000
        0.0947        0.6358        0.0000
        0.0395        0.5907        0.0000
       -0.0018        0.5374        0.0000
       -0.0282        0.4872        0.0000
       -0.0554        0.5235        0.0000
       -0.0475        0.5862        0.0000
       -0.0243        0.5960        0.0000
       -0.0230        0.5824        0.0000
       -0.0582        0.5928        0.0000
       -0.0582        0.5720        0.0000
        0.0000        0.5000        0.0000
        0.1622        0.5333        0.0000
        0.1961        0.5329        0.0000
        0.1947        0.5296        0.0000
        0.1748        0.6048        0.0000
        0.1350        0.6308        0.0000
        0.0980        0.5802        0.0000
        0.0518        0.5366        0.0000
        0.0059        0.4997        0.0000
       -0.0182        0.4584        0.0000
       -0.0419        0.5055        0.0000
       -0.0537        0.6004        0.0000
       -0.0246        0.6130        0.0000
       -0.0194        0.5620        0.0000
       -0.0614        0.5937        0.0000
       -0.0614        0.5303        0.0000
        0.0000        0.5000        0.0000
        0.1166        0.5433        0.0000
        0.1338        0.5430        0.0000
        0.1281        0.5204        0.0000
        0.1197        0.5777        0.0000
        0.0958        0.5954        0.0000
        0.0703        0.5393        0.0000
        0.0468        0.4878        0.0000
        0.0121        0.4622        0.0000
       -0.0173        0.4389        0.0000
       -0.0285        0.4892        0.0000
       -0.0371        0.6017        0.0000
       -0.0242        0.6272        0.0000
       -0.0192        0.5524        0.0000
       -0.0464        0.6021        0.0000
       -0.0464        0.5027        0.0000
        0.0000        0.5000        0.0000
        0.0697        0.5408        0.0000
        0.0639        0.5336        0.0000
        0.0502        0.5125        0.0000
        0.0543        0.5655        0.0000
        0.0451        0.5714        0.0000
        0.0327        0.5230        0.0000
        0.0395        0.4718        0.0000
        0.0260        0.4309        0.0000
       -0.0168        0.4164        0.0000
       -0.0310        0.4862        0.0000
       -0.0220        0.6038        0.0000
       -0.0152        0.6288        0.0000
       -0.0140        0.5436        0.0000
       -0.0282        0.6023        0.0000
       -0.0282        0.4849        0.0000
        0.0000        0.5000        0.0000
        0.0209        0.5287        0.0000
        0.0127        0.5117        0.0000
        0.0047        0.5089        0.0000
        0.0097        0.5717        0.0000
        0.0097        0.5695        0.0000
        0.0081        0.5323        0.0000
        0.0180        0.4805        0.0000
        0.0158        0.4025        0.0000
       -0.0089        0.3798        0.0000
       -0.0196        0.4833        0.0000
       -0.0112        0.6162        0.0000
       -0.0060        0.6342        0.0000
       -0.0050        0.5412        0.0000
       -0.0086        0.6040        0.0000
       -0.0086        0.4784        0.0000
        0.0000        0.5000        0.0000
        0.0000        0.5287        0.0000
        0.0000        0.5117        0.0000
        0.0000        0.5089        0.0000
        0.0000        0.5717        0.0000
        0.0000        0.5695        0.0000
        0.0000        0.5323        0.0000
        0.0000        0.4805        0.0000
        0.0000        0.4025        0.0000
        0.0000        0.3798        0.0000
        0.0000        0.4833        0.0000
        0.0000        0.6162        0.0000
        0.0000        0.6342        0.0000
        0.0000        0.5412        0.0000
        0.0000        0.6040        0.0000
        0.0000        0.4863        0.0000
