# vtk DataFile Version 3.0
VTK from OpenAI
ASCII
DATASET STRUCTURED_GRID
DIMENSIONS 3 3 2
POINTS 18 float
0 0 0   1 0 0   2 0 0
0 1 0   1 1 0   2 1 0
0 2 0   1 2 0   2 2 0
0 0 1   1 0 1   2 0 1
0 1 1   1 1 1   2 1 1
0 2 1   1 2 1   2 2 1

POINT_DATA 18
VECTORS wind_velocity float
1 0 0   0 1 0   -1 0 0
1 0 0   0 1 0   -1 0 0
1 0 0   0 1 0   -1 0 0
1 0 0   0 1 0   -1 0 0
1 0 0   0 1 0   -1 0 0
1 0 0   0 1 0   -1 0 0

